

56 atoms
55 bonds
54 angles
53 dihedrals

56 atom types
55 bond types
54 angle types
53 dihedral types

0 126.5  xlo xhi
0 115.93  ylo yhi
0 129.29  zlo zhi

Masses
# masses in g/mol (amu) - uniform default value = 16.00
       1        131  # G1
       2        101  # G2
       3        163  # G3
       4        128  # G4
       5        113  # G5
       6        113  # G6
       7        113  # G7
       8        114  # G8
       9         57  # G9
      10        128  # G10
      11        101  # G11
      12        113  # G12
      13        128  # G13
      14         57  # G14
      15        128  # G15
      16        101  # G16
      17        101  # G17
      18        101  # G18
      19        128  # G19
      20         71  # G20
      21         99  # G21
      22        114  # G22
      23         71  # G23
      24         71  # G24
      25        101  # G25
      26         71  # G26
      27        128  # G27
      28        128  # G28
      29         99  # G29
      30        147  # G30
      31        128  # G31
      32        128  # G32
      33        163  # G33
      34         71  # G34
      35        114  # G35
      36        114  # G36
      37        114  # G37
      38         57  # G38
      39         99  # G39
      40        114  # G40
      41         57  # G41
      42        128  # G42
      43        186  # G43
      44        101  # G44
      45        163  # G45
      46        114  # G46
      47        114  # G47
      48         71  # G48
      49        101  # G49
      50        128  # G50
      51        101  # G51
      52        147  # G52
      53        101  # G53
      54         99  # G54
      55        101  # G55
      56        128  # G56


Atoms
#atom-ID molecule-ID atom-type q x y z
1 1 1 0 67.86 63.88 76.34
2 1 2 0 67.01 65.01 72.78
3 1 3 0 66.65 62.38 70.11
4 1 4 0 66.1 63.01 66.39
5 1 5 0 64.17 61.14 63.72
6 1 6 0 65 61.45 59.98
7 1 7 0 61.93 60.51 57.89
8 1 8 0 62.55 59.33 54.41
9 1 9 0 59.13 57.99 53.47
10 1 10 0 57.51 57.95 50
11 1 11 0 55.21 60.82 51.04
12 1 12 0 56.54 62.37 54.29
13 1 13 0 60.16 63.63 54.4
14 1 14 0 62.07 65.7 57.01
15 1 15 0 63.35 65.65 60.67
16 1 16 0 61.72 65.93 64.09
17 1 17 0 62.98 65.66 67.59
18 1 18 0 61.66 64.66 70.97
19 1 19 0 62.83 64.68 74.59
20 1 20 0 62.9 61.28 76.25
21 1 21 0 64.56 59.76 79.29
22 1 22 0 66.14 57.03 77.16
23 1 23 0 66.37 55.47 73.73
24 1 24 0 63.6 52.89 74.08
25 1 25 0 61.17 55.56 75.12
26 1 26 0 62.07 57.79 72.18
27 1 27 0 61.74 54.8 69.75
28 1 28 0 58.23 54.27 71.18
29 1 29 0 56.99 57.73 70.48
30 1 30 0 58.76 57.84 67.03
31 1 31 0 57.17 54.58 65.95
32 1 32 0 53.64 55.84 66.95
33 1 33 0 54.26 59.09 65.15
34 1 34 0 55.45 57.3 61.99
35 1 35 0 52.52 54.97 62.15
36 1 36 0 50 57.79 62.66
37 1 37 0 51.38 59.41 59.51
38 1 38 0 51.24 56.14 57.53
39 1 39 0 55.03 55.66 57.23
40 1 40 0 56.08 52.05 57.24
41 1 41 0 59.75 51.38 56.57
42 1 42 0 63.14 50 57.81
43 1 43 0 64.55 51.61 60.93
44 1 44 0 68.04 52.33 62.18
45 1 45 0 69.32 53.84 65.45
46 1 46 0 72.72 55.42 66.02
47 1 47 0 73.52 56.03 69.69
48 1 48 0 76.5 58.21 68.84
49 1 49 0 74.26 60.95 67.44
50 1 50 0 71.01 59.87 69.08
51 1 51 0 69.35 59.69 65.7
52 1 52 0 66.69 57.29 64.42
53 1 53 0 65.89 56.9 60.79
54 1 54 0 62.89 55.39 58.98
55 1 55 0 63.07 54.69 55.22
56 1 56 0 60.2 53.53 52.98

Bond Coeffs

1 378 3.83094
2 378 3.76420
3 378 3.81700
4 378 3.78306
5 378 3.84887
6 378 3.83125
7 378 3.72547
8 378 3.78630
9 378 3.83088
10 378 3.82084
11 378 3.83783
12 378 3.83019
13 378 3.83961
14 378 3.87830
15 378 3.79818
16 378 3.73436
17 378 3.75691
18 378 3.80960
19 378 3.78300
20 378 3.77776
21 378 3.80665
22 378 3.77697
23 378 3.80243
24 378 3.75725
25 378 3.79616
26 378 3.87008
27 378 3.82899
28 378 3.74160
29 378 3.87715
30 378 3.78661
31 378 3.87113
32 378 3.76094
33 378 3.82122
34 378 3.74683
35 378 3.81435
36 378 3.80066
37 378 3.82784
38 378 3.83472
39 378 3.75921
40 378 3.78248
41 378 3.86231
42 378 3.78461
43 378 3.77294
44 378 3.82829
45 378 3.78677
46 378 3.80090
47 378 3.79228
48 378 3.81078
49 378 3.79804
50 378 3.76639
51 378 3.80282
52 378 3.73997
53 378 3.81498
54 378 3.82204
55 378 3.81867

Bonds

1 1 1 2
2 2 2 3
3 3 3 4
4 4 4 5
5 5 5 6
6 6 6 7
7 7 7 8
8 8 8 9
9 9 9 10
10 10 10 11
11 11 11 12
12 12 12 13
13 13 13 14
14 14 14 15
15 15 15 16
16 16 16 17
17 17 17 18
18 18 18 19
19 19 19 20
20 20 20 21
21 21 21 22
22 22 22 23
23 23 23 24
24 24 24 25
25 25 25 26
26 26 26 27
27 27 27 28
28 28 28 29
29 29 29 30
30 30 30 31
31 31 31 32
32 32 32 33
33 33 33 34
34 34 34 35
35 35 35 36
36 36 36 37
37 37 37 38
38 38 38 39
39 39 39 40
40 40 40 41
41 41 41 42
42 42 42 43
43 43 43 44
44 44 44 45
45 45 45 46
46 46 46 47
47 47 47 48
48 48 48 49
49 49 49 50
50 50 50 51
51 51 51 52
52 52 52 53
53 53 53 54
54 54 54 55
55 55 55 56

Angle Coeffs

1 75.6 118.306218
2 75.6 126.271148
3 75.6 132.836461
4 75.6 122.418350
5 75.6 109.696095
6 75.6 116.930957
7 75.6 101.277962
8 75.6 127.785881
9 75.6 90.010354
10 75.6 108.980983
11 75.6 119.058567
12 75.6 131.788813
13 75.6 142.954362
14 75.6 134.942568
15 75.6 134.036498
16 75.6 138.111523
17 75.6 138.295912
18 75.6 114.648301
19 75.6 136.280397
20 75.6 91.210525
21 75.6 146.111671
22 75.6 98.579363
23 75.6 90.889921
24 75.6 93.027509
25 75.6 90.594106
26 75.6 87.133726
27 75.6 96.031643
28 75.6 92.513561
29 75.6 91.898333
30 75.6 91.761786
31 75.6 90.468884
32 75.6 92.458032
33 75.6 90.748237
34 75.6 93.548953
35 75.6 87.994980
36 75.6 92.882794
37 75.6 96.302060
38 75.6 113.353106
39 75.6 116.352308
40 75.6 149.099743
41 75.6 116.124728
42 75.6 134.294386
43 75.6 131.952261
44 75.6 126.518200
45 75.6 113.700049
46 75.6 92.482735
47 75.6 91.775316
48 75.6 98.057877
49 75.6 90.177068
50 75.6 129.910243
51 75.6 122.876475
52 75.6 132.042580
53 75.6 120.205698
54 75.6 126.755604

Angles

1 1 1 2 3
2 2 2 3 4
3 3 3 4 5
4 4 4 5 6
5 5 5 6 7
6 6 6 7 8
7 7 7 8 9
8 8 8 9 10
9 9 9 10 11
10 10 10 11 12
11 11 11 12 13
12 12 12 13 14
13 13 13 14 15
14 14 14 15 16
15 15 15 16 17
16 16 16 17 18
17 17 17 18 19
18 18 18 19 20
19 19 19 20 21
20 20 20 21 22
21 21 21 22 23
22 22 22 23 24
23 23 23 24 25
24 24 24 25 26
25 25 25 26 27
26 26 26 27 28
27 27 27 28 29
28 28 28 29 30
29 29 29 30 31
30 30 30 31 32
31 31 31 32 33
32 32 32 33 34
33 33 33 34 35
34 34 34 35 36
35 35 35 36 37
36 36 36 37 38
37 37 37 38 39
38 38 38 39 40
39 39 39 40 41
40 40 40 41 42
41 41 41 42 43
42 42 42 43 44
43 43 43 44 45
44 44 44 45 46
45 45 45 46 47
46 46 46 47 48
47 47 47 48 49
48 48 48 49 50
49 49 49 50 51
50 50 50 51 52
51 51 51 52 53
52 52 52 53 54
53 53 53 54 55
54 54 54 55 56


Dihedral Coeffs

1 4 0.556701983 1 322.871240 0.9910620169999999 2 265.886730 0.095817012 3 210.406620 0.199666814 4 161.823180
2 4 0.616553797 1 324.033233 1.022654471 2 262.040120 0.122367044 3 196.839153 0.098708434 4 135.683844
3 4 0.774632699 1 309.438421 1.210524245 2 271.246564 0.045920504 3 206.334489 0.096077761 4 117.078212
4 4 1.2595715859999999 1 308.766895 1.776776668 2 262.095700 0.363954697 3 227.437722 0.308537289 4 166.146616
5 4 0.8660678849999999 1 315.804170 1.571519883 2 257.387682 0.047274678 3 221.992170 0.195739566 4 143.253988
6 4 0.48753490499999996 1 291.174853 1.031529019 2 242.764794 0.15069977699999998 3 111.001242 0.175012052 4 93.354768
7 4 0.09705288100000001 1 119.931625 0.26158789 2 255.865172 0.092475553 3 73.757313 0.057263444 4 49.522204
8 4 0.147944107 1 259.371319 0.39254578900000003 2 22.923572 0.103316354 3 227.853699 0.12911497 4 12.827068
9 4 0.720702349 1 300.005539 1.0983961999999998 2 254.579876 0.112750162 3 211.168104 0.12369827399999998 4 139.861976
10 4 0.6607054619999999 1 331.646347 1.26919516 2 284.321618 0.038868092 3 297.426579 0.18130635599999997 4 211.878480
11 4 0.6463183789999999 1 301.722744 1.1628738589999998 2 257.190120 0.034474316 3 168.830490 0.12421307999999999 4 121.840776
12 4 0.070659394 1 148.427948 0.642629892 2 247.750476 0.131759983 3 98.732133 0.076562933 4 20.955060
13 4 0.150450261 1 257.874137 0.441324016 2 29.007416 0.116356911 3 231.726435 0.18225590299999997 4 23.446812
14 4 0.7608275809999999 1 287.091835 1.212981165 2 252.664880 0.097254836 3 209.480121 0.150910575 4 142.119496
15 4 0.628521722 1 323.883113 1.106303037 2 266.531670 0.10883558099999999 3 256.797402 0.206572719 4 180.852816
16 4 0.628521722 1 323.883113 1.106303037 2 266.531670 0.10883558099999999 3 256.797402 0.206572719 4 180.852816
17 4 0.563551245 1 330.492949 1.14933427 2 281.274882 0.041220569 3 105.038466 0.127402535 4 180.030484
18 4 0.638661775 1 287.447079 1.05485996 2 264.125290 0.158778216 3 127.841196 0.25956117 4 99.985228
19 4 0.6254782959999999 1 297.375012 1.341300743 2 266.401146 0.212439213 3 257.336685 0.101383322 4 179.503804
20 4 0.43324175299999995 1 323.651058 1.0551699429999999 2 249.892600 0.104265662 3 94.758612 0.200368518 4 89.369156
21 4 0.625091116 1 305.611523 0.610677504 2 274.552972 0.076562933 3 348.054567 0.110242574 4 146.980156
22 4 0.42205559699999995 1 287.354830 1.0400797219999998 2 271.691192 0.05937477 3 180.488748 0.276331083 4 108.041256
23 4 0.537621896 1 288.288206 1.189129204 2 259.625606 0.157229974 3 236.584116 0.143152635 4 155.321292
24 4 0.527505265 1 329.790482 0.9604900929999999 2 281.490206 0.08970554299999998 3 158.828241 0.135475716 4 144.897280
25 4 0.505419275 1 297.153271 1.2284024009999999 2 273.097960 0.07470303499999999 3 269.149134 0.162780271 4 102.242752
26 4 0.633165731 1 288.515104 1.131931724 2 260.895546 0.037483804 3 73.613496 0.101033904 4 121.545120
27 4 0.79545175 1 304.057043 1.2099489719999998 2 260.541334 0.08704523399999999 3 225.583002 0.076629375 4 141.635908
28 4 0.654955361 1 318.495432 1.23602196 2 243.633996 0.12475584899999999 3 218.659176 0.250524102 4 113.493680
29 4 0.621327105 1 318.227853 0.995234957 2 264.706630 0.146341373 3 217.344198 0.09052363999999999 4 136.628108
30 4 0.655555012 1 303.478911 1.089688235 2 264.163106 0.10991155899999999 3 144.834480 0.178936432 4 104.830304
31 4 0.660589786 1 292.318510 1.049689195 2 255.419628 0.146884142 3 205.038420 0.20240886099999997 4 130.941908
32 4 0.6476276209999999 1 326.334872 0.9685255119999999 2 268.328976 0.169856344 3 186.852204 0.184160255 4 103.093044
33 4 0.345080867 1 279.893554 1.032851884 2 254.220392 0.043183954000000004 3 90.438900 0.147412571 4 111.208660
34 4 0.67243367 1 316.171447 0.452988889 2 277.652078 0.078610685 3 299.790099 0.053177978 4 114.992584
35 4 0.434760598 1 296.199841 0.524646108 2 253.486984 0.108977069 3 25.409709 0.056959436 4 96.428204
36 4 0.09705288100000001 1 119.931625 0.26158789 2 255.865172 0.092475553 3 73.757313 0.057263444 4 49.522204
37 4 0.15748833299999998 1 254.167563 0.424136092 2 18.141524 0.11605601 3 217.081203 0.151267402 4 1.629080
38 4 0.43324175299999995 1 323.651058 1.0551699429999999 2 249.892600 0.104265662 3 94.758612 0.200368518 4 89.369156
39 4 0.09395042199999999 1 121.608149 0.416601856 2 252.187592 0.165002971 3 76.041762 0.056095451 4 71.153144
40 4 0.150450261 1 257.874137 0.441324016 2 29.007416 0.116356911 3 231.726435 0.18225590299999997 4 23.446812
41 4 0.6826712349999999 1 287.080949 1.093965379 2 262.056278 0.186298827 3 144.600708 0.30067060399999995 4 111.653288
42 4 0.636502649 1 310.999204 1.183043547 2 259.802310 0.180422534 3 239.774439 0.196581085 4 167.896484
43 4 0.556701983 1 322.871240 0.9910620169999999 2 265.886730 0.095817012 3 210.406620 0.199666814 4 161.823180
44 4 0.519790345 1 324.356963 0.9116308449999999 2 261.095514 0.139374284 3 166.082616 0.143250147 4 103.663728
45 4 0.543156419 1 302.927710 0.563164065 2 269.004284 0.11298151399999999 3 0.975204 0.060230628999999994 4 131.670732
46 4 0.625091116 1 305.611523 0.610677504 2 274.552972 0.076562933 3 348.054567 0.110242574 4 146.980156
47 4 0.537621896 1 288.288206 1.189129204 2 259.625606 0.157229974 3 236.584116 0.143152635 4 155.321292
48 4 0.503588296 1 327.744390 1.0411078999999999 2 274.177674 0.021655789999999998 3 136.999797 0.145676236 4 177.979232
49 4 0.720702349 1 300.005539 1.0983961999999998 2 254.579876 0.112750162 3 211.168104 0.12369827399999998 4 139.861976
50 4 0.604908761 1 322.269043 1.051647083 2 265.848798 0.11762241600000001 3 215.353686 0.22520253 4 162.133504
51 4 0.755216817 1 314.006175 1.0868147380000002 2 257.087442 0.25568506799999996 3 218.361801 0.160572867 4 160.988240
52 4 0.693979281 1 326.380137 1.262262965 2 273.234328 0.104903792 3 276.399840 0.226277552 4 199.193736
53 4 0.664268474 1 320.895050 1.279733626 2 245.350744 0.143006845 3 262.343856 0.19039863299999998 4 137.654880


Dihedrals

1 1 1 2 3 4
2 2 2 3 4 5
3 3 3 4 5 6
4 4 4 5 6 7
5 5 5 6 7 8
6 6 6 7 8 9
7 7 7 8 9 10
8 8 8 9 10 11
9 9 9 10 11 12
10 10 10 11 12 13
11 11 11 12 13 14
12 12 12 13 14 15
13 13 13 14 15 16
14 14 14 15 16 17
15 15 15 16 17 18
16 16 16 17 18 19
17 17 17 18 19 20
18 18 18 19 20 21
19 19 19 20 21 22
20 20 20 21 22 23
21 21 21 22 23 24
22 22 22 23 24 25
23 23 23 24 25 26
24 24 24 25 26 27
25 25 25 26 27 28
26 26 26 27 28 29
27 27 27 28 29 30
28 28 28 29 30 31
29 29 29 30 31 32
30 30 30 31 32 33
31 31 31 32 33 34
32 32 32 33 34 35
33 33 33 34 35 36
34 34 34 35 36 37
35 35 35 36 37 38
36 36 36 37 38 39
37 37 37 38 39 40
38 38 38 39 40 41
39 39 39 40 41 42
40 40 40 41 42 43
41 41 41 42 43 44
42 42 42 43 44 45
43 43 43 44 45 46
44 44 44 45 46 47
45 45 45 46 47 48
46 46 46 47 48 49
47 47 47 48 49 50
48 48 48 49 50 51
49 49 49 50 51 52
50 50 50 51 52 53
51 51 51 52 53 54
52 52 52 53 54 55
53 53 53 54 55 56
